version 3
run General-0-20250112-18:09:55-22984
attr configname General
attr datetime 20250112-18:09:55
attr datetimef 20250112-180955
attr experiment General
attr inifile omnetpp.ini
attr iterationvars ""
attr iterationvarsd ""
attr iterationvarsf ""
attr measurement ""
attr network leosatelliteenvironment.RadioCommunication
attr processid 22984
attr repetition 0
attr replication #0
attr resultdir results
attr runnumber 0
attr seedset 0
config image-path ../../inet4.5/images
config network leosatelliteenvironment.RadioCommunication
config sim-time-limit 200s
config output-vector-file output.vec
config output-scalar-file output.sca
config **.debug true
config *.userTerminal.wlan[0].radio.transmitter.debug true
config *.userTerminal.wlan[0].radio.receiver.debug true
config *.satellite.wlan[0].radio.transmitter.debug true
config *.satellite.wlan[0].radio.receiver.debug true
config *.userTerminal.numApps 1
config *.userTerminal.app[0].typename UdpBasicApp
config *.userTerminal.app[0].destAddresses "\"satellite\""
config *.userTerminal.app[0].destPort 5000
config *.userTerminal.app[0].startTime 1s
config *.userTerminal.app[0].stopTime 10s
config *.userTerminal.wlan[0].radio.antenna.maxGain 35dB
config *.userTerminal.wlan[0].radio.antenna.minGain -15dB
config *.userTerminal.wlan[0].radio.antenna.beamWidth 30deg
config *.satellite.wlan[0].radio.antenna.maxGain 35dB
config *.satellite.wlan[0].radio.antenna.minGain -15dB
config *.satellite.wlan[0].radio.antenna.beamWidth 30deg
config *.userTerminal.app[0].packetLength 100B
config *.userTerminal.app[0].sendInterval 1s
config *.satellite.app[0].recordPackets true
config *.satellite.numApps 1
config *.satellite.app[0].typename UdpSink
config *.satellite.app[0].localPort 5000
config *.userTerminal.wlan[0].typename Ieee80211Interface
config *.satellite.wlan[0].typename Ieee80211Interface
config *.visualizer.*.radioVisualizer.displayRadios true
config *.visualizer.*.radioVisualizer.displayAntennaLobes true
config *.visualizer.*.radioVisualizer.radioFilter "\"*.source**\""
config *.visualizer.*.dataLinkVisualizer.displayLinks true
config *.radioMedium.typename Ieee80211ScalarRadioMedium
config *.radioMedium.datapath "\"default\""
config *.satellite.numClusters 4
config *.satellite.orbitRadius 5000km
config *.userTerminal.wlan[0].dataRate 10Mbps
config *.satellite.wlan[0].dataRate 10Mbps
config *.satellite.linkLayerType "\"Mac\""

vector 0 RadioCommunication.userTerminal.lo[0].lo rcvdPkFromHl:vector(packetBytes) ETV
attr interpolationmode none
attr recordingmode vector(packetBytes)
attr source packetReceivedFromUpper
attr title "packets received from higher layer, packetBytes"
vector 1 RadioCommunication.userTerminal.lo[0].lo passedUpPk:vector(packetBytes) ETV
attr interpolationmode none
attr recordingmode vector(packetBytes)
attr source packetSentToUpper
attr title "packets passed to higher layer, packetBytes"
vector 2 RadioCommunication.userTerminal.lo[0] packetDropInterfaceDown:vector(packetBytes) ETV
attr interpolationmode none
attr recordingmode vector(packetBytes)
attr source packetDropReasonIsInterfaceDown(packetDropped)
attr title "packet drops: interface down, packetBytes"
vector 3 RadioCommunication.userTerminal.lo[0] packetDropNoCarrier:vector(packetBytes) ETV
attr interpolationmode none
attr recordingmode vector(packetBytes)
attr source packetDropReasonIsNoCarrier(packetDropped)
attr title "packet drops: no carrier, packetBytes"
vector 4 RadioCommunication.userTerminal.wlan[0].agent sentRequest:vector ETV
attr recordingmode vector
attr title "sent requests"
vector 5 RadioCommunication.userTerminal.wlan[0].agent acceptConfirm:vector ETV
attr recordingmode vector
attr title "accepted confirms"
vector 6 RadioCommunication.userTerminal.wlan[0].agent dropConfirm:vector ETV
attr recordingmode vector
attr title "dropped confirms"
vector 7 RadioCommunication.userTerminal.wlan[0].mac.dcf.channelAccess.pendingQueue queueLength:vector ETV
attr autoWarmupFilter false
attr interpolationmode sample-hold
attr recordingmode vector
attr source "warmup(atomic(constant0(packetPushEnded) + count(packetPushStarted) - count(packetPulled) - count(packetRemoved) - count(packetDropped)))"
attr title "queue length"
attr unit pk
vector 8 RadioCommunication.userTerminal.wlan[0].mac.dcf.channelAccess.pendingQueue queueBitLength:vector ETV
attr autoWarmupFilter false
attr interpolationmode sample-hold
attr recordingmode vector
attr source "warmup(atomic(constant0(packetPushEnded) + sum(packetLength(packetPushStarted)) - sum(packetLength(packetPulled)) - sum(packetLength(packetRemoved)) - sum(packetLength(packetDropped))))"
attr title "queue bit length"
attr unit b
vector 9 RadioCommunication.userTerminal.wlan[0].mac.dcf.channelAccess.pendingQueue queueingTime:vector ETV
attr interpolationmode none
attr recordingmode vector
attr source queueingTime(packetPulled)
attr title "queueing times"
attr unit s
vector 10 RadioCommunication.userTerminal.wlan[0].mac.dcf.channelAccess.pendingQueue incomingPacketLengths:vector ETV
attr interpolationmode none
attr recordingmode vector
attr source packetLength(packetPushStarted)
attr title "incoming packet lengths"
attr unit b
vector 11 RadioCommunication.userTerminal.wlan[0].mac.dcf.channelAccess.pendingQueue incomingDataRate:vector ETV
attr interpolationmode linear
attr recordingmode vector
attr source throughput(packetPushStarted)
attr title "incoming datarate"
attr unit bps
vector 12 RadioCommunication.userTerminal.wlan[0].mac.dcf.channelAccess.pendingQueue outgoingPacketLengths:vector ETV
attr interpolationmode none
attr recordingmode vector
attr source packetLength(packetPulled)
attr title "outgoing packet lengths"
attr unit b
vector 13 RadioCommunication.userTerminal.wlan[0].mac.dcf.channelAccess.pendingQueue outgoingDataRate:vector ETV
attr interpolationmode linear
attr recordingmode vector
attr source throughput(packetPulled)
attr title "outgoing datarate"
attr unit bps
vector 14 RadioCommunication.userTerminal.wlan[0].mac.dcf.channelAccess.pendingQueue droppedPacketLengthsQueueOverflow:vector ETV
attr interpolationmode none
attr recordingmode vector
attr source packetLength(packetDropReasonIsQueueOverflow(packetDropped))
attr title "dropped packet lengths: queue overflow"
attr unit b
vector 15 RadioCommunication.userTerminal.wlan[0].mac.dcf.channelAccess.pendingQueue flowQueueingTime:vector ETV
attr interpolationmode none
attr recordingmode vector
attr source queueingTime(demuxFlow(packetPulled))
attr title "flow queueing times"
attr unit s
vector 16 RadioCommunication.userTerminal.wlan[0].mac.dcf.channelAccess.pendingQueue flowIncomingDataRate:vector ETV
attr interpolationmode linear
attr recordingmode vector
attr source throughput(flowPacketLength(demuxFlow(packetPushStarted)))
attr title "flow specific incoming data rate"
attr unit bps
vector 17 RadioCommunication.userTerminal.wlan[0].mac.dcf.channelAccess.pendingQueue flowOutgoingDataRate:vector ETV
attr interpolationmode linear
attr recordingmode vector
attr source throughput(flowPacketLength(demuxFlow(packetPulled)))
attr title "flow specific outgoing data rate"
attr unit bps
vector 18 RadioCommunication.userTerminal.wlan[0].mac.dcf.channelAccess.inProgressFrames queueingTime:vector ETV
attr interpolationmode none
attr recordingmode vector
attr source queueingTime(packetDequeued)
attr title "queueing times"
vector 19 RadioCommunication.userTerminal.wlan[0].mac.dcf.channelAccess.inProgressFrames queueLength:vector ETV
attr autoWarmupFilter false
attr interpolationmode sample-hold
attr recordingmode vector
attr source "warmup(count(packetEnqueued) - count(packetDequeued))"
attr title "queue length"
vector 20 RadioCommunication.userTerminal.wlan[0].mac.dcf.channelAccess.contention backoffPeriodGenerated:vector ETV
attr interpolationmode none
attr recordingmode vector
attr title "backoff periods"
vector 21 RadioCommunication.userTerminal.wlan[0].mac.dcf.channelAccess.contention backoffActive:vector ETV
attr autoWarmupFilter false
attr interpolationmode sample-hold
attr recordingmode vector
attr source warmup(count(backoffStarted)-count(backoffStopped))
attr title "backoff active"
vector 22 RadioCommunication.userTerminal.wlan[0].mac.dcf.channelAccess.contention stateChanged:vector ETV
attr enum IDLE,DEFER,IFS_AND_BACKOFF
attr interpolationmode none
attr recordingmode vector
attr title "contention state changed"
attr type enum
vector 23 RadioCommunication.userTerminal.wlan[0].mac.dcf.recipientMacDataService packetDropDuplicateDetected:vector(packetBytes) ETV
attr interpolationmode none
attr recordingmode vector(packetBytes)
attr source packetDropReasonIsDuplicateDetected(packetDropped)
attr title "packet drops: duplicate detected, packetBytes"
vector 24 RadioCommunication.userTerminal.wlan[0].mac.dcf.recoveryProcedure contentionWindowChanged:vector ETV
attr interpolationmode sample-hold
attr recordingmode vector
attr title "contention window"
vector 25 RadioCommunication.userTerminal.wlan[0].mac.dcf packetSentToPeer:vector(packetBytes) ETV
attr interpolationmode none
attr recordingmode vector(packetBytes)
attr title "packets sent, packetBytes"
vector 26 RadioCommunication.userTerminal.wlan[0].mac.dcf packetSentToPeerUnicast:vector(packetBytes) ETV
attr interpolationmode none
attr recordingmode vector(packetBytes)
attr source ieee80211Unicast(packetSentToPeer)
attr title "packets sent: unicast, packetBytes"
vector 27 RadioCommunication.userTerminal.wlan[0].mac.dcf packetSentToPeerMulticast:vector(packetBytes) ETV
attr interpolationmode none
attr recordingmode vector(packetBytes)
attr source ieee80211Multicast(packetSentToPeer)
attr title "packets sent: multicast, packetBytes"
vector 28 RadioCommunication.userTerminal.wlan[0].mac.dcf packetSentToPeerBroadcast:vector(packetBytes) ETV
attr interpolationmode none
attr recordingmode vector(packetBytes)
attr source ieee80211Broadcast(packetSentToPeer)
attr title "packets sent: broadcast , packetBytes"
vector 29 RadioCommunication.userTerminal.wlan[0].mac.dcf packetSentToPeerWithRetry:vector(packetBytes) ETV
attr interpolationmode none
attr recordingmode vector(packetBytes)
attr source ieee80211Retry(packetSentToPeer)
attr title "packets sent: with retry, packetBytes"
vector 30 RadioCommunication.userTerminal.wlan[0].mac.dcf packetSentToPeerWithoutRetry:vector(packetBytes) ETV
attr interpolationmode none
attr recordingmode vector(packetBytes)
attr source ieee80211NotRetry(packetSentToPeer)
attr title "packets sent: without retry, packetBytes"
vector 31 RadioCommunication.userTerminal.wlan[0].mac.dcf packetReceivedFromPeer:vector(packetBytes) ETV
attr interpolationmode none
attr recordingmode vector(packetBytes)
attr title "packets received, packetBytes"
vector 32 RadioCommunication.userTerminal.wlan[0].mac.dcf packetReceivedFromPeerUnicast:vector(packetBytes) ETV
attr interpolationmode none
attr recordingmode vector(packetBytes)
attr source ieee80211Unicast(packetReceivedFromPeer)
attr title "packets received: unicast, packetBytes"
vector 33 RadioCommunication.userTerminal.wlan[0].mac.dcf packetReceivedFromPeerMulticast:vector(packetBytes) ETV
attr interpolationmode none
attr recordingmode vector(packetBytes)
attr source ieee80211Multicast(packetReceivedFromPeer)
attr title "packets received: multicast, packetBytes"
vector 34 RadioCommunication.userTerminal.wlan[0].mac.dcf packetReceivedFromPeerBroadcast:vector(packetBytes) ETV
attr interpolationmode none
attr recordingmode vector(packetBytes)
attr source ieee80211Broadcast(packetReceivedFromPeer)
attr title "packets received: broadcast, packetBytes"
vector 35 RadioCommunication.userTerminal.wlan[0].mac.dcf packetReceivedFromPeerWithRetry:vector(packetBytes) ETV
attr interpolationmode none
attr recordingmode vector(packetBytes)
attr source ieee80211Retry(packetReceivedFromPeer)
attr title "packets received: with retry, packetBytes"
vector 36 RadioCommunication.userTerminal.wlan[0].mac.dcf packetReceivedFromPeerWithoutRetry:vector(packetBytes) ETV
attr interpolationmode none
attr recordingmode vector(packetBytes)
attr source ieee80211NotRetry(packetReceivedFromPeer)
attr title "packets received: without retry, packetBytes"
vector 37 RadioCommunication.userTerminal.wlan[0].mac.dcf packetDrop:vector(packetBytes) ETV
attr interpolationmode none
attr recordingmode vector(packetBytes)
attr source packetDropped
attr title "packet drops, packetBytes"
vector 38 RadioCommunication.userTerminal.wlan[0].mac.dcf packetDropNotAddressedToUs:vector(packetBytes) ETV
attr interpolationmode none
attr recordingmode vector(packetBytes)
attr source packetDropReasonIsNotAddressedToUs(packetDropped)
attr title "packet drops: not addressed to us, packetBytes"
vector 39 RadioCommunication.userTerminal.wlan[0].mac.dcf packetDropQueueOverflow:vector(packetBytes) ETV
attr interpolationmode none
attr recordingmode vector(packetBytes)
attr source packetDropReasonIsQueueOverflow(packetDropped)
attr title "packet drops: queue overflow, packetBytes"
vector 40 RadioCommunication.userTerminal.wlan[0].mac.dcf packetDropRetryLimitReached:vector(packetBytes) ETV
attr interpolationmode none
attr recordingmode vector(packetBytes)
attr source packetDropReasonIsRetryLimitReached(packetDropped)
attr title "packet drops: retry limit reached, packetBytes"
vector 41 RadioCommunication.userTerminal.wlan[0].mac.dcf frameSequenceActive:vector ETV
attr autoWarmupFilter false
attr interpolationmode sample-hold
attr recordingmode vector
attr source warmup(count(frameSequenceStarted)-count(frameSequenceFinished))
attr title "frame sequence active"
vector 42 RadioCommunication.userTerminal.wlan[0].mac.dcf datarateSelected:vector ETV
attr interpolationmode none
attr recordingmode vector
attr title "datarates selected"
vector 43 RadioCommunication.userTerminal.wlan[0].mac.rx nav:vector ETV
attr interpolationmode linear
attr recordingmode vector
attr source navChanged
attr title "network allocation vector"
vector 44 RadioCommunication.userTerminal.wlan[0].mac packetSentToUpper:vector(packetBytes) ETV
attr interpolationmode none
attr recordingmode vector(packetBytes)
attr title "packets sent to upper layer, packetBytes"
vector 45 RadioCommunication.userTerminal.wlan[0].mac packetSentToLower:vector(packetBytes) ETV
attr interpolationmode none
attr recordingmode vector(packetBytes)
attr title "packets sent to lower layer, packetBytes"
vector 46 RadioCommunication.userTerminal.wlan[0].mac packetReceivedFromUpper:vector(packetBytes) ETV
attr interpolationmode none
attr recordingmode vector(packetBytes)
attr title "packets received from upper layer, packetBytes"
vector 47 RadioCommunication.userTerminal.wlan[0].mac packetReceivedFromLower:vector(packetBytes) ETV
attr interpolationmode none
attr recordingmode vector(packetBytes)
attr title "packets received from lower layer, packetBytes"
vector 48 RadioCommunication.userTerminal.wlan[0].mac packetDrop:vector(packetBytes) ETV
attr interpolationmode none
attr recordingmode vector(packetBytes)
attr source packetDropped
attr title "packet drops, packetBytes"
vector 49 RadioCommunication.userTerminal.wlan[0].mac packetDropIncorrectlyReceived:vector(packetBytes) ETV
attr interpolationmode none
attr recordingmode vector(packetBytes)
attr source packetDropReasonIsIncorrectlyReceived(packetDropped)
attr title "packet drops: incorrectly received, packetBytes"
vector 50 RadioCommunication.userTerminal.wlan[0].mac packetDropNotAddressedToUs:vector(packetBytes) ETV
attr interpolationmode none
attr recordingmode vector(packetBytes)
attr source packetDropReasonIsNotAddressedToUs(packetDropped)
attr title "packet drops: not addressed to us, packetBytes"
vector 51 RadioCommunication.userTerminal.wlan[0].mac packetDropQueueOverflow:vector(packetBytes) ETV
attr interpolationmode none
attr recordingmode vector(packetBytes)
attr source packetDropReasonIsQueueOverflow(packetDropped)
attr title "packet drops: queue overflow, packetBytes"
vector 52 RadioCommunication.userTerminal.wlan[0].mac packetDropRetryLimitReached:vector(packetBytes) ETV
attr interpolationmode none
attr recordingmode vector(packetBytes)
attr source packetDropReasonIsRetryLimitReached(packetDropped)
attr title "packet drops: retry limit reached, packetBytes"
vector 53 RadioCommunication.userTerminal.wlan[0].mac packetDropDuplicateDetected:vector(packetBytes) ETV
attr interpolationmode none
attr recordingmode vector(packetBytes)
attr source packetDropReasonIsDuplicateDetected(packetDropped)
attr title "packet drops: duplicate detected, packetBytes"
vector 54 RadioCommunication.userTerminal.wlan[0].mac packetDropOther:vector(packetBytes) ETV
attr interpolationmode none
attr recordingmode vector(packetBytes)
attr source packetDropReasonIsOther(packetDropped)
attr title "packet drops: other, packetBytes"
vector 55 RadioCommunication.userTerminal.wlan[0].radio radioMode:vector ETV
attr interpolationmode sample-hold
attr recordingmode vector
attr source radioModeChanged
attr title "Radio mode"
vector 56 RadioCommunication.userTerminal.wlan[0].radio receptionState:vector ETV
attr interpolationmode sample-hold
attr recordingmode vector
attr source receptionStateChanged
attr title "Radio reception state"
vector 57 RadioCommunication.userTerminal.wlan[0].radio transmissionState:vector ETV
attr interpolationmode sample-hold
attr recordingmode vector
attr source transmissionStateChanged
attr title "Radio transmission state"
vector 58 RadioCommunication.userTerminal.wlan[0].radio radioChannel:vector ETV
attr interpolationmode sample-hold
attr recordingmode vector
attr source radioChannelChanged
attr title "Radio channel"
vector 59 RadioCommunication.userTerminal.wlan[0] packetDropInterfaceDown:vector(packetBytes) ETV
attr interpolationmode none
attr recordingmode vector(packetBytes)
attr source packetDropReasonIsInterfaceDown(packetDropped)
attr title "packet drops: interface down, packetBytes"
vector 60 RadioCommunication.userTerminal.wlan[0] packetDropNoCarrier:vector(packetBytes) ETV
attr interpolationmode none
attr recordingmode vector(packetBytes)
attr source packetDropReasonIsNoCarrier(packetDropped)
attr title "packet drops: no carrier, packetBytes"
vector 61 RadioCommunication.userTerminal.ipv4.ip packetDropAddressResolutionFailed:vector(packetBytes) ETV
attr interpolationmode none
attr recordingmode vector(packetBytes)
attr source packetDropReasonIsAddressResolutionFailed(packetDropped)
attr title "packet drop: address resolution failed, packetBytes"
vector 62 RadioCommunication.userTerminal.ipv4.ip packetDropHopLimitReached:vector(packetBytes) ETV
attr interpolationmode none
attr recordingmode vector(packetBytes)
attr source packetDropReasonIsHopLimitReached(packetDropped)
attr title "packet drop: hop limit reached, packetBytes"
vector 63 RadioCommunication.userTerminal.ipv4.ip packetDropForwardingDisabled:vector(packetBytes) ETV
attr interpolationmode none
attr recordingmode vector(packetBytes)
attr source packetDropReasonIsForwardingDisabled(packetDropped)
attr title "packet drop: forwarding disabled, packetBytes"
vector 64 RadioCommunication.userTerminal.ipv4.ip packetDropNoInterfaceFound:vector(packetBytes) ETV
attr interpolationmode none
attr recordingmode vector(packetBytes)
attr source packetDropReasonIsNoInterfaceFound(packetDropped)
attr title "packet drop: no interface found, packetBytes"
vector 65 RadioCommunication.userTerminal.ipv4.ip packetDropNoRouteFound:vector(packetBytes) ETV
attr interpolationmode none
attr recordingmode vector(packetBytes)
attr source packetDropReasonIsNoRouteFound(packetDropped)
attr title "packet drop: no route found, packetBytes"
vector 66 RadioCommunication.userTerminal.ipv4.ip packetDropUndefined:vector(packetBytes) ETV
attr interpolationmode none
attr recordingmode vector(packetBytes)
attr source packetDropReasonIsUndefined(packetDropped)
attr title "packet drop: undefined, packetBytes"
vector 67 RadioCommunication.userTerminal.ipv4.arp arpRequestSent:vector(packetBytes) ETV
attr recordingmode vector(packetBytes)
attr source arpRequestSent
attr title "ARP request sent, packetBytes"
vector 68 RadioCommunication.userTerminal.ipv4.arp arpReplySent:vector(packetBytes) ETV
attr recordingmode vector(packetBytes)
attr source arpReplySent
attr title "ARP replies sent, packetBytes"
vector 69 RadioCommunication.userTerminal.udp packetSent:vector(packetBytes) ETV
attr interpolationmode none
attr recordingmode vector(packetBytes)
attr source packetSent
attr title "packets sent, packetBytes"
vector 70 RadioCommunication.userTerminal.udp packetReceived:vector(packetBytes) ETV
attr interpolationmode none
attr recordingmode vector(packetBytes)
attr source packetReceived
attr title "packets received, packetBytes"
vector 71 RadioCommunication.userTerminal.udp passedUpPk:vector(count) ETV
attr interpolationmode none
attr recordingmode vector(count)
attr source packetSentToUpper
attr title "packets passed up, count"
vector 72 RadioCommunication.userTerminal.udp droppedPkWrongPort:vector(count) ETV
attr interpolationmode none
attr recordingmode vector(count)
attr source packetDropReasonIsNoPortFound(packetDropped)
attr title "packets dropped (wrong port), count"
vector 73 RadioCommunication.userTerminal.udp droppedPkBadChecksum:vector(count) ETV
attr interpolationmode none
attr recordingmode vector(count)
attr source packetDropReasonIsIncorrectlyReceived(packetDropped)
attr title "packets dropped (checksum error), count"
vector 74 RadioCommunication.userTerminal.app[0] packetReceived:vector(packetBytes) ETV
attr interpolationmode none
attr recordingmode vector(packetBytes)
attr source packetReceived
attr title "packets received, packetBytes"
vector 75 RadioCommunication.userTerminal.app[0] throughput:vector ETV
attr recordingmode vector
attr source throughput(packetReceived)
attr title throughput
attr unit bps
vector 76 RadioCommunication.userTerminal.app[0] packetSent:vector(packetBytes) ETV
attr interpolationmode none
attr recordingmode vector(packetBytes)
attr source packetSent
attr title "packets sent, packetBytes"
vector 77 RadioCommunication.userTerminal.app[0] rcvdPkLifetime:vector ETV
attr interpolationmode none
attr recordingmode vector
attr source dataAge(packetReceived)
attr title "received packet lifetime"
attr unit s
vector 78 RadioCommunication.userTerminal.app[0] rcvdPkSeqNo:vector ETV
attr interpolationmode none
attr recordingmode vector
attr source appPkSeqNo(packetReceived)
attr title "received packet sequence number"
vector 79 RadioCommunication.satellite.lo[0].lo rcvdPkFromHl:vector(packetBytes) ETV
attr interpolationmode none
attr recordingmode vector(packetBytes)
attr source packetReceivedFromUpper
attr title "packets received from higher layer, packetBytes"
vector 80 RadioCommunication.satellite.lo[0].lo passedUpPk:vector(packetBytes) ETV
attr interpolationmode none
attr recordingmode vector(packetBytes)
attr source packetSentToUpper
attr title "packets passed to higher layer, packetBytes"
vector 81 RadioCommunication.satellite.lo[0] packetDropInterfaceDown:vector(packetBytes) ETV
attr interpolationmode none
attr recordingmode vector(packetBytes)
attr source packetDropReasonIsInterfaceDown(packetDropped)
attr title "packet drops: interface down, packetBytes"
vector 82 RadioCommunication.satellite.lo[0] packetDropNoCarrier:vector(packetBytes) ETV
attr interpolationmode none
attr recordingmode vector(packetBytes)
attr source packetDropReasonIsNoCarrier(packetDropped)
attr title "packet drops: no carrier, packetBytes"
vector 83 RadioCommunication.satellite.wlan[0].mac.dcf.channelAccess.pendingQueue queueLength:vector ETV
attr autoWarmupFilter false
attr interpolationmode sample-hold
attr recordingmode vector
attr source "warmup(atomic(constant0(packetPushEnded) + count(packetPushStarted) - count(packetPulled) - count(packetRemoved) - count(packetDropped)))"
attr title "queue length"
attr unit pk
vector 84 RadioCommunication.satellite.wlan[0].mac.dcf.channelAccess.pendingQueue queueBitLength:vector ETV
attr autoWarmupFilter false
attr interpolationmode sample-hold
attr recordingmode vector
attr source "warmup(atomic(constant0(packetPushEnded) + sum(packetLength(packetPushStarted)) - sum(packetLength(packetPulled)) - sum(packetLength(packetRemoved)) - sum(packetLength(packetDropped))))"
attr title "queue bit length"
attr unit b
vector 85 RadioCommunication.satellite.wlan[0].mac.dcf.channelAccess.pendingQueue queueingTime:vector ETV
attr interpolationmode none
attr recordingmode vector
attr source queueingTime(packetPulled)
attr title "queueing times"
attr unit s
vector 86 RadioCommunication.satellite.wlan[0].mac.dcf.channelAccess.pendingQueue incomingPacketLengths:vector ETV
attr interpolationmode none
attr recordingmode vector
attr source packetLength(packetPushStarted)
attr title "incoming packet lengths"
attr unit b
vector 87 RadioCommunication.satellite.wlan[0].mac.dcf.channelAccess.pendingQueue incomingDataRate:vector ETV
attr interpolationmode linear
attr recordingmode vector
attr source throughput(packetPushStarted)
attr title "incoming datarate"
attr unit bps
vector 88 RadioCommunication.satellite.wlan[0].mac.dcf.channelAccess.pendingQueue outgoingPacketLengths:vector ETV
attr interpolationmode none
attr recordingmode vector
attr source packetLength(packetPulled)
attr title "outgoing packet lengths"
attr unit b
vector 89 RadioCommunication.satellite.wlan[0].mac.dcf.channelAccess.pendingQueue outgoingDataRate:vector ETV
attr interpolationmode linear
attr recordingmode vector
attr source throughput(packetPulled)
attr title "outgoing datarate"
attr unit bps
vector 90 RadioCommunication.satellite.wlan[0].mac.dcf.channelAccess.pendingQueue droppedPacketLengthsQueueOverflow:vector ETV
attr interpolationmode none
attr recordingmode vector
attr source packetLength(packetDropReasonIsQueueOverflow(packetDropped))
attr title "dropped packet lengths: queue overflow"
attr unit b
vector 91 RadioCommunication.satellite.wlan[0].mac.dcf.channelAccess.pendingQueue flowQueueingTime:vector ETV
attr interpolationmode none
attr recordingmode vector
attr source queueingTime(demuxFlow(packetPulled))
attr title "flow queueing times"
attr unit s
vector 92 RadioCommunication.satellite.wlan[0].mac.dcf.channelAccess.pendingQueue flowIncomingDataRate:vector ETV
attr interpolationmode linear
attr recordingmode vector
attr source throughput(flowPacketLength(demuxFlow(packetPushStarted)))
attr title "flow specific incoming data rate"
attr unit bps
vector 93 RadioCommunication.satellite.wlan[0].mac.dcf.channelAccess.pendingQueue flowOutgoingDataRate:vector ETV
attr interpolationmode linear
attr recordingmode vector
attr source throughput(flowPacketLength(demuxFlow(packetPulled)))
attr title "flow specific outgoing data rate"
attr unit bps
vector 94 RadioCommunication.satellite.wlan[0].mac.dcf.channelAccess.inProgressFrames queueingTime:vector ETV
attr interpolationmode none
attr recordingmode vector
attr source queueingTime(packetDequeued)
attr title "queueing times"
vector 95 RadioCommunication.satellite.wlan[0].mac.dcf.channelAccess.inProgressFrames queueLength:vector ETV
attr autoWarmupFilter false
attr interpolationmode sample-hold
attr recordingmode vector
attr source "warmup(count(packetEnqueued) - count(packetDequeued))"
attr title "queue length"
vector 96 RadioCommunication.satellite.wlan[0].mac.dcf.channelAccess.contention backoffPeriodGenerated:vector ETV
attr interpolationmode none
attr recordingmode vector
attr title "backoff periods"
vector 97 RadioCommunication.satellite.wlan[0].mac.dcf.channelAccess.contention backoffActive:vector ETV
attr autoWarmupFilter false
attr interpolationmode sample-hold
attr recordingmode vector
attr source warmup(count(backoffStarted)-count(backoffStopped))
attr title "backoff active"
vector 98 RadioCommunication.satellite.wlan[0].mac.dcf.channelAccess.contention stateChanged:vector ETV
attr enum IDLE,DEFER,IFS_AND_BACKOFF
attr interpolationmode none
attr recordingmode vector
attr title "contention state changed"
attr type enum
vector 99 RadioCommunication.satellite.wlan[0].mac.dcf.recipientMacDataService packetDropDuplicateDetected:vector(packetBytes) ETV
attr interpolationmode none
attr recordingmode vector(packetBytes)
attr source packetDropReasonIsDuplicateDetected(packetDropped)
attr title "packet drops: duplicate detected, packetBytes"
vector 100 RadioCommunication.satellite.wlan[0].mac.dcf.recoveryProcedure contentionWindowChanged:vector ETV
attr interpolationmode sample-hold
attr recordingmode vector
attr title "contention window"
vector 101 RadioCommunication.satellite.wlan[0].mac.dcf packetSentToPeer:vector(packetBytes) ETV
attr interpolationmode none
attr recordingmode vector(packetBytes)
attr title "packets sent, packetBytes"
vector 102 RadioCommunication.satellite.wlan[0].mac.dcf packetSentToPeerUnicast:vector(packetBytes) ETV
attr interpolationmode none
attr recordingmode vector(packetBytes)
attr source ieee80211Unicast(packetSentToPeer)
attr title "packets sent: unicast, packetBytes"
vector 103 RadioCommunication.satellite.wlan[0].mac.dcf packetSentToPeerMulticast:vector(packetBytes) ETV
attr interpolationmode none
attr recordingmode vector(packetBytes)
attr source ieee80211Multicast(packetSentToPeer)
attr title "packets sent: multicast, packetBytes"
vector 104 RadioCommunication.satellite.wlan[0].mac.dcf packetSentToPeerBroadcast:vector(packetBytes) ETV
attr interpolationmode none
attr recordingmode vector(packetBytes)
attr source ieee80211Broadcast(packetSentToPeer)
attr title "packets sent: broadcast , packetBytes"
vector 105 RadioCommunication.satellite.wlan[0].mac.dcf packetSentToPeerWithRetry:vector(packetBytes) ETV
attr interpolationmode none
attr recordingmode vector(packetBytes)
attr source ieee80211Retry(packetSentToPeer)
attr title "packets sent: with retry, packetBytes"
vector 106 RadioCommunication.satellite.wlan[0].mac.dcf packetSentToPeerWithoutRetry:vector(packetBytes) ETV
attr interpolationmode none
attr recordingmode vector(packetBytes)
attr source ieee80211NotRetry(packetSentToPeer)